 Generated by Multiwfn
GAUSSIAN             90 MOL ORBITALS    780 PRIMITIVES       42 NUCLEI
  C    1    (CENTRE  1)  -0.61073775 -8.92410931 -4.64483164  CHARGE =  6.0
  C    2    (CENTRE  2)  -0.29197219 -9.60901856 -7.19068362  CHARGE =  6.0
  C    3    (CENTRE  3)   0.30268737 -7.79453594 -9.07138125  CHARGE =  6.0
  C    4    (CENTRE  4)   0.60106920 -5.21408686 -8.47949581  CHARGE =  6.0
  C    5    (CENTRE  5)   0.27515330 -4.57299166 -5.94046315  CHARGE =  6.0
  C    6    (CENTRE  6)  -0.31929051 -6.35025885 -4.01735100  CHARGE =  6.0
  O    7    (CENTRE  7)   0.44342414 -2.23344320 -4.82179604  CHARGE =  8.0
  C    8    (CENTRE  8)  -0.06046520 -2.69922762 -2.26238853  CHARGE =  6.0
  N    9    (CENTRE  9)  -0.51377983 -5.08719568 -1.72081378  CHARGE =  7.0
  C   10    (CENTRE 10)  -0.04737381 -0.59070324 -0.54099580  CHARGE =  6.0
  C   11    (CENTRE 11)   0.42509416  1.85021896 -1.25585758  CHARGE =  6.0
  C   12    (CENTRE 12)   0.43926918  4.07644032  0.36782740  CHARGE =  6.0
  C   13    (CENTRE 13)   0.38219059  8.40279764  3.66484018  CHARGE =  6.0
  C   14    (CENTRE 14)  -0.06665818  5.93404923  4.60475376  CHARGE =  6.0
  C   15    (CENTRE 15)  -0.03874446  3.85030539  3.00259890  CHARGE =  6.0
  C   16    (CENTRE 16)   0.91776931  6.55647542 -0.65154222  CHARGE =  6.0
  C   17    (CENTRE 17)   0.88022974  8.71929542  1.01053306  CHARGE =  6.0
  C   18    (CENTRE 18)   1.33271802 11.21077127  0.03839590  CHARGE =  6.0
  C   19    (CENTRE 19)   1.28491822 13.36625134  1.70170916  CHARGE =  6.0
  C   20    (CENTRE 20)   0.77881567 12.97101667  4.34594827  CHARGE =  6.0
  C   21    (CENTRE 21)   0.34599145 10.58411349  5.28536834  CHARGE =  6.0
  C   22    (CENTRE 22)   1.43913749  7.00311220 -3.28912262  CHARGE =  6.0
  C   23    (CENTRE 23)   1.87955978  9.39135936 -4.22036400  CHARGE =  6.0
  C   24    (CENTRE 24)   1.83856133 11.57767663 -2.60586755  CHARGE =  6.0
  C   25    (CENTRE 25)   2.28084469 14.05009935 -3.52858352  CHARGE =  6.0
  C   26    (CENTRE 26)   2.22664819 16.13782167 -1.89277422  CHARGE =  6.0
  C   27    (CENTRE 27)   1.73368558 15.80432466  0.69193473  CHARGE =  6.0
  H   28    (CENTRE 28)  -1.07290474-10.32041196 -3.18073177  CHARGE =  1.0
  H   29    (CENTRE 29)  -0.51097667-11.59858174 -7.74806528  CHARGE =  1.0
  H   30    (CENTRE 30)   0.53937627 -8.41394879-11.04033826  CHARGE =  1.0
  H   31    (CENTRE 31)   1.06093199 -3.79464719 -9.92113094  CHARGE =  1.0
  H   32    (CENTRE 32)  -0.47306329 -1.12426668  1.41820058  CHARGE =  1.0
  H   33    (CENTRE 33)   0.81949533  2.13733050 -3.27048249  CHARGE =  1.0
  H   34    (CENTRE 34)  -0.44946159  5.67939685  6.63202695  CHARGE =  1.0
  H   35    (CENTRE 35)  -0.40282558  1.97304357  3.80573003  CHARGE =  1.0
  H   36    (CENTRE 36)   0.74266663 14.62430637  5.60542131  CHARGE =  1.0
  H   37    (CENTRE 37)  -0.04468634 10.30166282  7.30755950  CHARGE =  1.0
  H   38    (CENTRE 38)   1.49599040  5.40433677 -4.60466848  CHARGE =  1.0
  H   39    (CENTRE 39)   2.27887517  9.66106917 -6.24277246  CHARGE =  1.0
  H   40    (CENTRE 40)   2.67350936 14.31634315 -5.55263448  CHARGE =  1.0
  H   41    (CENTRE 41)   2.57682006 18.04474549 -2.64056227  CHARGE =  1.0
  H   42    (CENTRE 42)   1.69332777 17.44448531  1.96862925  CHARGE =  1.0
CENTRE ASSIGNMENTS    1  1  1  1  1  1  1  1  1  1  1  1  1  1  1  1  1  1  1  1
CENTRE ASSIGNMENTS    1  1  1  1  1  2  2  2  2  2  2  2  2  2  2  2  2  2  2  2
CENTRE ASSIGNMENTS    2  2  2  2  2  2  2  2  2  2  3  3  3  3  3  3  3  3  3  3
CENTRE ASSIGNMENTS    3  3  3  3  3  3  3  3  3  3  3  3  3  3  3  4  4  4  4  4
CENTRE ASSIGNMENTS    4  4  4  4  4  4  4  4  4  4  4  4  4  4  4  4  4  4  4  4
CENTRE ASSIGNMENTS    5  5  5  5  5  5  5  5  5  5  5  5  5  5  5  5  5  5  5  5
CENTRE ASSIGNMENTS    5  5  5  5  5  6  6  6  6  6  6  6  6  6  6  6  6  6  6  6
CENTRE ASSIGNMENTS    6  6  6  6  6  6  6  6  6  6  7  7  7  7  7  7  7  7  7  7
CENTRE ASSIGNMENTS    7  7  7  7  7  7  7  7  7  7  7  7  7  7  7  8  8  8  8  8
CENTRE ASSIGNMENTS    8  8  8  8  8  8  8  8  8  8  8  8  8  8  8  8  8  8  8  8
CENTRE ASSIGNMENTS    9  9  9  9  9  9  9  9  9  9  9  9  9  9  9  9  9  9  9  9
CENTRE ASSIGNMENTS    9  9  9  9  9 10 10 10 10 10 10 10 10 10 10 10 10 10 10 10
CENTRE ASSIGNMENTS   10 10 10 10 10 10 10 10 10 10 11 11 11 11 11 11 11 11 11 11
CENTRE ASSIGNMENTS   11 11 11 11 11 11 11 11 11 11 11 11 11 11 11 12 12 12 12 12
CENTRE ASSIGNMENTS   12 12 12 12 12 12 12 12 12 12 12 12 12 12 12 12 12 12 12 12
CENTRE ASSIGNMENTS   13 13 13 13 13 13 13 13 13 13 13 13 13 13 13 13 13 13 13 13
CENTRE ASSIGNMENTS   13 13 13 13 13 14 14 14 14 14 14 14 14 14 14 14 14 14 14 14
CENTRE ASSIGNMENTS   14 14 14 14 14 14 14 14 14 14 15 15 15 15 15 15 15 15 15 15
CENTRE ASSIGNMENTS   15 15 15 15 15 15 15 15 15 15 15 15 15 15 15 16 16 16 16 16
CENTRE ASSIGNMENTS   16 16 16 16 16 16 16 16 16 16 16 16 16 16 16 16 16 16 16 16
CENTRE ASSIGNMENTS   17 17 17 17 17 17 17 17 17 17 17 17 17 17 17 17 17 17 17 17
CENTRE ASSIGNMENTS   17 17 17 17 17 18 18 18 18 18 18 18 18 18 18 18 18 18 18 18
CENTRE ASSIGNMENTS   18 18 18 18 18 18 18 18 18 18 19 19 19 19 19 19 19 19 19 19
CENTRE ASSIGNMENTS   19 19 19 19 19 19 19 19 19 19 19 19 19 19 19 20 20 20 20 20
CENTRE ASSIGNMENTS   20 20 20 20 20 20 20 20 20 20 20 20 20 20 20 20 20 20 20 20
CENTRE ASSIGNMENTS   21 21 21 21 21 21 21 21 21 21 21 21 21 21 21 21 21 21 21 21
CENTRE ASSIGNMENTS   21 21 21 21 21 22 22 22 22 22 22 22 22 22 22 22 22 22 22 22
CENTRE ASSIGNMENTS   22 22 22 22 22 22 22 22 22 22 23 23 23 23 23 23 23 23 23 23
CENTRE ASSIGNMENTS   23 23 23 23 23 23 23 23 23 23 23 23 23 23 23 24 24 24 24 24
CENTRE ASSIGNMENTS   24 24 24 24 24 24 24 24 24 24 24 24 24 24 24 24 24 24 24 24
CENTRE ASSIGNMENTS   25 25 25 25 25 25 25 25 25 25 25 25 25 25 25 25 25 25 25 25
CENTRE ASSIGNMENTS   25 25 25 25 25 26 26 26 26 26 26 26 26 26 26 26 26 26 26 26
CENTRE ASSIGNMENTS   26 26 26 26 26 26 26 26 26 26 27 27 27 27 27 27 27 27 27 27
CENTRE ASSIGNMENTS   27 27 27 27 27 27 27 27 27 27 27 27 27 27 27 28 28 28 28 28
CENTRE ASSIGNMENTS   28 28 29 29 29 29 29 29 29 30 30 30 30 30 30 30 31 31 31 31
CENTRE ASSIGNMENTS   31 31 31 32 32 32 32 32 32 32 33 33 33 33 33 33 33 34 34 34
CENTRE ASSIGNMENTS   34 34 34 34 35 35 35 35 35 35 35 36 36 36 36 36 36 36 37 37
CENTRE ASSIGNMENTS   37 37 37 37 37 38 38 38 38 38 38 38 39 39 39 39 39 39 39 40
CENTRE ASSIGNMENTS   40 40 40 40 40 40 41 41 41 41 41 41 41 42 42 42 42 42 42 42
TYPE ASSIGNMENTS      1  1  1  1  1  1  1  2  2  2  3  3  3  4  4  4  2  3  4  5
TYPE ASSIGNMENTS      6  7  8  9 10  1  1  1  1  1  1  1  2  2  2  3  3  3  4  4
TYPE ASSIGNMENTS      4  2  3  4  5  6  7  8  9 10  1  1  1  1  1  1  1  2  2  2
TYPE ASSIGNMENTS      3  3  3  4  4  4  2  3  4  5  6  7  8  9 10  1  1  1  1  1
TYPE ASSIGNMENTS      1  1  2  2  2  3  3  3  4  4  4  2  3  4  5  6  7  8  9 10
TYPE ASSIGNMENTS      1  1  1  1  1  1  1  2  2  2  3  3  3  4  4  4  2  3  4  5
TYPE ASSIGNMENTS      6  7  8  9 10  1  1  1  1  1  1  1  2  2  2  3  3  3  4  4
TYPE ASSIGNMENTS      4  2  3  4  5  6  7  8  9 10  1  1  1  1  1  1  1  2  2  2
TYPE ASSIGNMENTS      3  3  3  4  4  4  2  3  4  5  6  7  8  9 10  1  1  1  1  1
TYPE ASSIGNMENTS      1  1  2  2  2  3  3  3  4  4  4  2  3  4  5  6  7  8  9 10
TYPE ASSIGNMENTS      1  1  1  1  1  1  1  2  2  2  3  3  3  4  4  4  2  3  4  5
TYPE ASSIGNMENTS      6  7  8  9 10  1  1  1  1  1  1  1  2  2  2  3  3  3  4  4
TYPE ASSIGNMENTS      4  2  3  4  5  6  7  8  9 10  1  1  1  1  1  1  1  2  2  2
TYPE ASSIGNMENTS      3  3  3  4  4  4  2  3  4  5  6  7  8  9 10  1  1  1  1  1
TYPE ASSIGNMENTS      1  1  2  2  2  3  3  3  4  4  4  2  3  4  5  6  7  8  9 10
TYPE ASSIGNMENTS      1  1  1  1  1  1  1  2  2  2  3  3  3  4  4  4  2  3  4  5
TYPE ASSIGNMENTS      6  7  8  9 10  1  1  1  1  1  1  1  2  2  2  3  3  3  4  4
TYPE ASSIGNMENTS      4  2  3  4  5  6  7  8  9 10  1  1  1  1  1  1  1  2  2  2
TYPE ASSIGNMENTS      3  3  3  4  4  4  2  3  4  5  6  7  8  9 10  1  1  1  1  1
TYPE ASSIGNMENTS      1  1  2  2  2  3  3  3  4  4  4  2  3  4  5  6  7  8  9 10
TYPE ASSIGNMENTS      1  1  1  1  1  1  1  2  2  2  3  3  3  4  4  4  2  3  4  5
TYPE ASSIGNMENTS      6  7  8  9 10  1  1  1  1  1  1  1  2  2  2  3  3  3  4  4
TYPE ASSIGNMENTS      4  2  3  4  5  6  7  8  9 10  1  1  1  1  1  1  1  2  2  2
TYPE ASSIGNMENTS      3  3  3  4  4  4  2  3  4  5  6  7  8  9 10  1  1  1  1  1
TYPE ASSIGNMENTS      1  1  2  2  2  3  3  3  4  4  4  2  3  4  5  6  7  8  9 10
TYPE ASSIGNMENTS      1  1  1  1  1  1  1  2  2  2  3  3  3  4  4  4  2  3  4  5
TYPE ASSIGNMENTS      6  7  8  9 10  1  1  1  1  1  1  1  2  2  2  3  3  3  4  4
TYPE ASSIGNMENTS      4  2  3  4  5  6  7  8  9 10  1  1  1  1  1  1  1  2  2  2
TYPE ASSIGNMENTS      3  3  3  4  4  4  2  3  4  5  6  7  8  9 10  1  1  1  1  1
TYPE ASSIGNMENTS      1  1  2  2  2  3  3  3  4  4  4  2  3  4  5  6  7  8  9 10
TYPE ASSIGNMENTS      1  1  1  1  1  1  1  2  2  2  3  3  3  4  4  4  2  3  4  5
TYPE ASSIGNMENTS      6  7  8  9 10  1  1  1  1  1  1  1  2  2  2  3  3  3  4  4
TYPE ASSIGNMENTS      4  2  3  4  5  6  7  8  9 10  1  1  1  1  1  1  1  2  2  2
TYPE ASSIGNMENTS      3  3  3  4  4  4  2  3  4  5  6  7  8  9 10  1  1  1  1  2
TYPE ASSIGNMENTS      3  4  1  1  1  1  2  3  4  1  1  1  1  2  3  4  1  1  1  1
TYPE ASSIGNMENTS      2  3  4  1  1  1  1  2  3  4  1  1  1  1  2  3  4  1  1  1
TYPE ASSIGNMENTS      1  2  3  4  1  1  1  1  2  3  4  1  1  1  1  2  3  4  1  1
TYPE ASSIGNMENTS      1  1  2  3  4  1  1  1  1  2  3  4  1  1  1  1  2  3  4  1
TYPE ASSIGNMENTS      1  1  1  2  3  4  1  1  1  1  2  3  4  1  1  1  1  2  3  4
EXPONENTS  0.1238402D+04 0.1862900D+03 0.4225118D+02 0.1167656D+02 0.3593051D+01
EXPONENTS  0.4024515D+00 0.1309018D+00 0.9468097D+01 0.2010355D+01 0.5477100D+00
EXPONENTS  0.9468097D+01 0.2010355D+01 0.5477100D+00 0.9468097D+01 0.2010355D+01
EXPONENTS  0.5477100D+00 0.1526861D+00 0.1526861D+00 0.1526861D+00 0.8000000D+00
EXPONENTS  0.8000000D+00 0.8000000D+00 0.8000000D+00 0.8000000D+00 0.8000000D+00
EXPONENTS  0.1238402D+04 0.1862900D+03 0.4225118D+02 0.1167656D+02 0.3593051D+01
EXPONENTS  0.4024515D+00 0.1309018D+00 0.9468097D+01 0.2010355D+01 0.5477100D+00
EXPONENTS  0.9468097D+01 0.2010355D+01 0.5477100D+00 0.9468097D+01 0.2010355D+01
EXPONENTS  0.5477100D+00 0.1526861D+00 0.1526861D+00 0.1526861D+00 0.8000000D+00
EXPONENTS  0.8000000D+00 0.8000000D+00 0.8000000D+00 0.8000000D+00 0.8000000D+00
EXPONENTS  0.1238402D+04 0.1862900D+03 0.4225118D+02 0.1167656D+02 0.3593051D+01
EXPONENTS  0.4024515D+00 0.1309018D+00 0.9468097D+01 0.2010355D+01 0.5477100D+00
EXPONENTS  0.9468097D+01 0.2010355D+01 0.5477100D+00 0.9468097D+01 0.2010355D+01
EXPONENTS  0.5477100D+00 0.1526861D+00 0.1526861D+00 0.1526861D+00 0.8000000D+00
EXPONENTS  0.8000000D+00 0.8000000D+00 0.8000000D+00 0.8000000D+00 0.8000000D+00
EXPONENTS  0.1238402D+04 0.1862900D+03 0.4225118D+02 0.1167656D+02 0.3593051D+01
EXPONENTS  0.4024515D+00 0.1309018D+00 0.9468097D+01 0.2010355D+01 0.5477100D+00
EXPONENTS  0.9468097D+01 0.2010355D+01 0.5477100D+00 0.9468097D+01 0.2010355D+01
EXPONENTS  0.5477100D+00 0.1526861D+00 0.1526861D+00 0.1526861D+00 0.8000000D+00
EXPONENTS  0.8000000D+00 0.8000000D+00 0.8000000D+00 0.8000000D+00 0.8000000D+00
EXPONENTS  0.1238402D+04 0.1862900D+03 0.4225118D+02 0.1167656D+02 0.3593051D+01
EXPONENTS  0.4024515D+00 0.1309018D+00 0.9468097D+01 0.2010355D+01 0.5477100D+00
EXPONENTS  0.9468097D+01 0.2010355D+01 0.5477100D+00 0.9468097D+01 0.2010355D+01
EXPONENTS  0.5477100D+00 0.1526861D+00 0.1526861D+00 0.1526861D+00 0.8000000D+00
EXPONENTS  0.8000000D+00 0.8000000D+00 0.8000000D+00 0.8000000D+00 0.8000000D+00
EXPONENTS  0.1238402D+04 0.1862900D+03 0.4225118D+02 0.1167656D+02 0.3593051D+01
EXPONENTS  0.4024515D+00 0.1309018D+00 0.9468097D+01 0.2010355D+01 0.5477100D+00
EXPONENTS  0.9468097D+01 0.2010355D+01 0.5477100D+00 0.9468097D+01 0.2010355D+01
EXPONENTS  0.5477100D+00 0.1526861D+00 0.1526861D+00 0.1526861D+00 0.8000000D+00
EXPONENTS  0.8000000D+00 0.8000000D+00 0.8000000D+00 0.8000000D+00 0.8000000D+00
EXPONENTS  0.2266177D+04 0.3408701D+03 0.7736314D+02 0.2147964D+02 0.6658943D+01
EXPONENTS  0.8097598D+00 0.2553077D+00 0.1772150D+02 0.3863551D+01 0.1048092D+01
EXPONENTS  0.1772150D+02 0.3863551D+01 0.1048092D+01 0.1772150D+02 0.3863551D+01
EXPONENTS  0.1048092D+01 0.2764154D+00 0.2764154D+00 0.2764154D+00 0.1200000D+01
EXPONENTS  0.1200000D+01 0.1200000D+01 0.1200000D+01 0.1200000D+01 0.1200000D+01
EXPONENTS  0.1238402D+04 0.1862900D+03 0.4225118D+02 0.1167656D+02 0.3593051D+01
EXPONENTS  0.4024515D+00 0.1309018D+00 0.9468097D+01 0.2010355D+01 0.5477100D+00
EXPONENTS  0.9468097D+01 0.2010355D+01 0.5477100D+00 0.9468097D+01 0.2010355D+01
EXPONENTS  0.5477100D+00 0.1526861D+00 0.1526861D+00 0.1526861D+00 0.8000000D+00
EXPONENTS  0.8000000D+00 0.8000000D+00 0.8000000D+00 0.8000000D+00 0.8000000D+00
EXPONENTS  0.1712842D+04 0.2576481D+03 0.5845825D+02 0.1619837D+02 0.5005260D+01
EXPONENTS  0.5873186D+00 0.1876459D+00 0.1357147D+02 0.2925737D+01 0.7992775D+00
EXPONENTS  0.1357147D+02 0.2925737D+01 0.7992775D+00 0.1357147D+02 0.2925737D+01
EXPONENTS  0.7992775D+00 0.2195435D+00 0.2195435D+00 0.2195435D+00 0.1000000D+01
EXPONENTS  0.1000000D+01 0.1000000D+01 0.1000000D+01 0.1000000D+01 0.1000000D+01
EXPONENTS  0.1238402D+04 0.1862900D+03 0.4225118D+02 0.1167656D+02 0.3593051D+01
EXPONENTS  0.4024515D+00 0.1309018D+00 0.9468097D+01 0.2010355D+01 0.5477100D+00
EXPONENTS  0.9468097D+01 0.2010355D+01 0.5477100D+00 0.9468097D+01 0.2010355D+01
EXPONENTS  0.5477100D+00 0.1526861D+00 0.1526861D+00 0.1526861D+00 0.8000000D+00
EXPONENTS  0.8000000D+00 0.8000000D+00 0.8000000D+00 0.8000000D+00 0.8000000D+00
EXPONENTS  0.1238402D+04 0.1862900D+03 0.4225118D+02 0.1167656D+02 0.3593051D+01
EXPONENTS  0.4024515D+00 0.1309018D+00 0.9468097D+01 0.2010355D+01 0.5477100D+00
EXPONENTS  0.9468097D+01 0.2010355D+01 0.5477100D+00 0.9468097D+01 0.2010355D+01
EXPONENTS  0.5477100D+00 0.1526861D+00 0.1526861D+00 0.1526861D+00 0.8000000D+00
EXPONENTS  0.8000000D+00 0.8000000D+00 0.8000000D+00 0.8000000D+00 0.8000000D+00
EXPONENTS  0.1238402D+04 0.1862900D+03 0.4225118D+02 0.1167656D+02 0.3593051D+01
EXPONENTS  0.4024515D+00 0.1309018D+00 0.9468097D+01 0.2010355D+01 0.5477100D+00
EXPONENTS  0.9468097D+01 0.2010355D+01 0.5477100D+00 0.9468097D+01 0.2010355D+01
EXPONENTS  0.5477100D+00 0.1526861D+00 0.1526861D+00 0.1526861D+00 0.8000000D+00
EXPONENTS  0.8000000D+00 0.8000000D+00 0.8000000D+00 0.8000000D+00 0.8000000D+00
EXPONENTS  0.1238402D+04 0.1862900D+03 0.4225118D+02 0.1167656D+02 0.3593051D+01
EXPONENTS  0.4024515D+00 0.1309018D+00 0.9468097D+01 0.2010355D+01 0.5477100D+00
EXPONENTS  0.9468097D+01 0.2010355D+01 0.5477100D+00 0.9468097D+01 0.2010355D+01
EXPONENTS  0.5477100D+00 0.1526861D+00 0.1526861D+00 0.1526861D+00 0.8000000D+00
EXPONENTS  0.8000000D+00 0.8000000D+00 0.8000000D+00 0.8000000D+00 0.8000000D+00
EXPONENTS  0.1238402D+04 0.1862900D+03 0.4225118D+02 0.1167656D+02 0.3593051D+01
EXPONENTS  0.4024515D+00 0.1309018D+00 0.9468097D+01 0.2010355D+01 0.5477100D+00
EXPONENTS  0.9468097D+01 0.2010355D+01 0.5477100D+00 0.9468097D+01 0.2010355D+01
EXPONENTS  0.5477100D+00 0.1526861D+00 0.1526861D+00 0.1526861D+00 0.8000000D+00
EXPONENTS  0.8000000D+00 0.8000000D+00 0.8000000D+00 0.8000000D+00 0.8000000D+00
EXPONENTS  0.1238402D+04 0.1862900D+03 0.4225118D+02 0.1167656D+02 0.3593051D+01
EXPONENTS  0.4024515D+00 0.1309018D+00 0.9468097D+01 0.2010355D+01 0.5477100D+00
EXPONENTS  0.9468097D+01 0.2010355D+01 0.5477100D+00 0.9468097D+01 0.2010355D+01
EXPONENTS  0.5477100D+00 0.1526861D+00 0.1526861D+00 0.1526861D+00 0.8000000D+00
EXPONENTS  0.8000000D+00 0.8000000D+00 0.8000000D+00 0.8000000D+00 0.8000000D+00
EXPONENTS  0.1238402D+04 0.1862900D+03 0.4225118D+02 0.1167656D+02 0.3593051D+01
EXPONENTS  0.4024515D+00 0.1309018D+00 0.9468097D+01 0.2010355D+01 0.5477100D+00
EXPONENTS  0.9468097D+01 0.2010355D+01 0.5477100D+00 0.9468097D+01 0.2010355D+01
EXPONENTS  0.5477100D+00 0.1526861D+00 0.1526861D+00 0.1526861D+00 0.8000000D+00
EXPONENTS  0.8000000D+00 0.8000000D+00 0.8000000D+00 0.8000000D+00 0.8000000D+00
EXPONENTS  0.1238402D+04 0.1862900D+03 0.4225118D+02 0.1167656D+02 0.3593051D+01
EXPONENTS  0.4024515D+00 0.1309018D+00 0.9468097D+01 0.2010355D+01 0.5477100D+00
EXPONENTS  0.9468097D+01 0.2010355D+01 0.5477100D+00 0.9468097D+01 0.2010355D+01
EXPONENTS  0.5477100D+00 0.1526861D+00 0.1526861D+00 0.1526861D+00 0.8000000D+00
EXPONENTS  0.8000000D+00 0.8000000D+00 0.8000000D+00 0.8000000D+00 0.8000000D+00
EXPONENTS  0.1238402D+04 0.1862900D+03 0.4225118D+02 0.1167656D+02 0.3593051D+01
EXPONENTS  0.4024515D+00 0.1309018D+00 0.9468097D+01 0.2010355D+01 0.5477100D+00
EXPONENTS  0.9468097D+01 0.2010355D+01 0.5477100D+00 0.9468097D+01 0.2010355D+01
EXPONENTS  0.5477100D+00 0.1526861D+00 0.1526861D+00 0.1526861D+00 0.8000000D+00
EXPONENTS  0.8000000D+00 0.8000000D+00 0.8000000D+00 0.8000000D+00 0.8000000D+00
EXPONENTS  0.1238402D+04 0.1862900D+03 0.4225118D+02 0.1167656D+02 0.3593051D+01
EXPONENTS  0.4024515D+00 0.1309018D+00 0.9468097D+01 0.2010355D+01 0.5477100D+00
EXPONENTS  0.9468097D+01 0.2010355D+01 0.5477100D+00 0.9468097D+01 0.2010355D+01
EXPONENTS  0.5477100D+00 0.1526861D+00 0.1526861D+00 0.1526861D+00 0.8000000D+00
EXPONENTS  0.8000000D+00 0.8000000D+00 0.8000000D+00 0.8000000D+00 0.8000000D+00
EXPONENTS  0.1238402D+04 0.1862900D+03 0.4225118D+02 0.1167656D+02 0.3593051D+01
EXPONENTS  0.4024515D+00 0.1309018D+00 0.9468097D+01 0.2010355D+01 0.5477100D+00
EXPONENTS  0.9468097D+01 0.2010355D+01 0.5477100D+00 0.9468097D+01 0.2010355D+01
EXPONENTS  0.5477100D+00 0.1526861D+00 0.1526861D+00 0.1526861D+00 0.8000000D+00
EXPONENTS  0.8000000D+00 0.8000000D+00 0.8000000D+00 0.8000000D+00 0.8000000D+00
EXPONENTS  0.1238402D+04 0.1862900D+03 0.4225118D+02 0.1167656D+02 0.3593051D+01
EXPONENTS  0.4024515D+00 0.1309018D+00 0.9468097D+01 0.2010355D+01 0.5477100D+00
EXPONENTS  0.9468097D+01 0.2010355D+01 0.5477100D+00 0.9468097D+01 0.2010355D+01
EXPONENTS  0.5477100D+00 0.1526861D+00 0.1526861D+00 0.1526861D+00 0.8000000D+00
EXPONENTS  0.8000000D+00 0.8000000D+00 0.8000000D+00 0.8000000D+00 0.8000000D+00
EXPONENTS  0.1238402D+04 0.1862900D+03 0.4225118D+02 0.1167656D+02 0.3593051D+01
EXPONENTS  0.4024515D+00 0.1309018D+00 0.9468097D+01 0.2010355D+01 0.5477100D+00
EXPONENTS  0.9468097D+01 0.2010355D+01 0.5477100D+00 0.9468097D+01 0.2010355D+01
EXPONENTS  0.5477100D+00 0.1526861D+00 0.1526861D+00 0.1526861D+00 0.8000000D+00
EXPONENTS  0.8000000D+00 0.8000000D+00 0.8000000D+00 0.8000000D+00 0.8000000D+00
EXPONENTS  0.1238402D+04 0.1862900D+03 0.4225118D+02 0.1167656D+02 0.3593051D+01
EXPONENTS  0.4024515D+00 0.1309018D+00 0.9468097D+01 0.2010355D+01 0.5477100D+00
EXPONENTS  0.9468097D+01 0.2010355D+01 0.5477100D+00 0.9468097D+01 0.2010355D+01
EXPONENTS  0.5477100D+00 0.1526861D+00 0.1526861D+00 0.1526861D+00 0.8000000D+00
EXPONENTS  0.8000000D+00 0.8000000D+00 0.8000000D+00 0.8000000D+00 0.8000000D+00
EXPONENTS  0.1238402D+04 0.1862900D+03 0.4225118D+02 0.1167656D+02 0.3593051D+01
EXPONENTS  0.4024515D+00 0.1309018D+00 0.9468097D+01 0.2010355D+01 0.5477100D+00
EXPONENTS  0.9468097D+01 0.2010355D+01 0.5477100D+00 0.9468097D+01 0.2010355D+01
EXPONENTS  0.5477100D+00 0.1526861D+00 0.1526861D+00 0.1526861D+00 0.8000000D+00
EXPONENTS  0.8000000D+00 0.8000000D+00 0.8000000D+00 0.8000000D+00 0.8000000D+00
EXPONENTS  0.1238402D+04 0.1862900D+03 0.4225118D+02 0.1167656D+02 0.3593051D+01
EXPONENTS  0.4024515D+00 0.1309018D+00 0.9468097D+01 0.2010355D+01 0.5477100D+00
EXPONENTS  0.9468097D+01 0.2010355D+01 0.5477100D+00 0.9468097D+01 0.2010355D+01
EXPONENTS  0.5477100D+00 0.1526861D+00 0.1526861D+00 0.1526861D+00 0.8000000D+00
EXPONENTS  0.8000000D+00 0.8000000D+00 0.8000000D+00 0.8000000D+00 0.8000000D+00
EXPONENTS  0.1238402D+04 0.1862900D+03 0.4225118D+02 0.1167656D+02 0.3593051D+01
EXPONENTS  0.4024515D+00 0.1309018D+00 0.9468097D+01 0.2010355D+01 0.5477100D+00
EXPONENTS  0.9468097D+01 0.2010355D+01 0.5477100D+00 0.9468097D+01 0.2010355D+01
EXPONENTS  0.5477100D+00 0.1526861D+00 0.1526861D+00 0.1526861D+00 0.8000000D+00
EXPONENTS  0.8000000D+00 0.8000000D+00 0.8000000D+00 0.8000000D+00 0.8000000D+00
EXPONENTS  0.1238402D+04 0.1862900D+03 0.4225118D+02 0.1167656D+02 0.3593051D+01
EXPONENTS  0.4024515D+00 0.1309018D+00 0.9468097D+01 0.2010355D+01 0.5477100D+00
EXPONENTS  0.9468097D+01 0.2010355D+01 0.5477100D+00 0.9468097D+01 0.2010355D+01
EXPONENTS  0.5477100D+00 0.1526861D+00 0.1526861D+00 0.1526861D+00 0.8000000D+00
EXPONENTS  0.8000000D+00 0.8000000D+00 0.8000000D+00 0.8000000D+00 0.8000000D+00
EXPONENTS  0.1301070D+02 0.1962257D+01 0.4445380D+00 0.1219496D+00 0.8000000D+00
EXPONENTS  0.8000000D+00 0.8000000D+00 0.1301070D+02 0.1962257D+01 0.4445380D+00
EXPONENTS  0.1219496D+00 0.8000000D+00 0.8000000D+00 0.8000000D+00 0.1301070D+02
EXPONENTS  0.1962257D+01 0.4445380D+00 0.1219496D+00 0.8000000D+00 0.8000000D+00
EXPONENTS  0.8000000D+00 0.1301070D+02 0.1962257D+01 0.4445380D+00 0.1219496D+00
EXPONENTS  0.8000000D+00 0.8000000D+00 0.8000000D+00 0.1301070D+02 0.1962257D+01
EXPONENTS  0.4445380D+00 0.1219496D+00 0.8000000D+00 0.8000000D+00 0.8000000D+00
EXPONENTS  0.1301070D+02 0.1962257D+01 0.4445380D+00 0.1219496D+00 0.8000000D+00
EXPONENTS  0.8000000D+00 0.8000000D+00 0.1301070D+02 0.1962257D+01 0.4445380D+00
EXPONENTS  0.1219496D+00 0.8000000D+00 0.8000000D+00 0.8000000D+00 0.1301070D+02
EXPONENTS  0.1962257D+01 0.4445380D+00 0.1219496D+00 0.8000000D+00 0.8000000D+00
EXPONENTS  0.8000000D+00 0.1301070D+02 0.1962257D+01 0.4445380D+00 0.1219496D+00
EXPONENTS  0.8000000D+00 0.8000000D+00 0.8000000D+00 0.1301070D+02 0.1962257D+01
EXPONENTS  0.4445380D+00 0.1219496D+00 0.8000000D+00 0.8000000D+00 0.8000000D+00
EXPONENTS  0.1301070D+02 0.1962257D+01 0.4445380D+00 0.1219496D+00 0.8000000D+00
EXPONENTS  0.8000000D+00 0.8000000D+00 0.1301070D+02 0.1962257D+01 0.4445380D+00
EXPONENTS  0.1219496D+00 0.8000000D+00 0.8000000D+00 0.8000000D+00 0.1301070D+02
EXPONENTS  0.1962257D+01 0.4445380D+00 0.1219496D+00 0.8000000D+00 0.8000000D+00
EXPONENTS  0.8000000D+00 0.1301070D+02 0.1962257D+01 0.4445380D+00 0.1219496D+00
EXPONENTS  0.8000000D+00 0.8000000D+00 0.8000000D+00 0.1301070D+02 0.1962257D+01
EXPONENTS  0.4445380D+00 0.1219496D+00 0.8000000D+00 0.8000000D+00 0.8000000D+00
MO    1     MO 0.0        OCC NO =    2.0000000  ORB. ENERGY =  -18.849851
 -0.79009253D-04 -0.14212356D-03 -0.20718382D-03 -0.20290656D-03 -0.79798899D-04
  0.48352608D-03  0.22431660D-02  0.60704388D-04  0.48130594D-04  0.23027238D-04
  0.58348040D-03  0.46262320D-03  0.22133395D-03  0.17743113D-03  0.14067955D-03
  0.67305662D-04  0.15859442D-03  0.62610630D-03 -0.36765575D-03  0.35883935D-04
 -0.11571208D-04 -0.24312728D-04  0.86882047D-05  0.72806130D-06 -0.12768838D-03
 -0.17439630D-04 -0.31370787D-04 -0.45731469D-04 -0.44787354D-04 -0.17613928D-04
  0.13494698D-03 -0.11541727D-02  0.44304411D-04  0.35127570D-04  0.16806170D-04
  0.18165620D-03  0.14402947D-03  0.68908375D-04 -0.94256801D-04 -0.74733244D-04
 -0.35754810D-04 -0.35700538D-04 -0.35593473D-03 -0.11907070D-03  0.56508115D-04
  0.42430881D-04 -0.98938997D-04 -0.11982164D-04  0.58943979D-04  0.34232810D-04
 -0.24684642D-04 -0.44403272D-04 -0.64729867D-04 -0.63393534D-04 -0.24931349D-04
  0.20019310D-03  0.14834288D-02  0.12537343D-04  0.99404640D-05  0.47558406D-05
  0.23558260D-03  0.18678601D-03  0.89364489D-04  0.14305831D-03  0.11342642D-03
  0.54266881D-04 -0.46654608D-05  0.17268915D-03  0.18997667D-03  0.91188945D-04
 -0.60920877D-04 -0.30268068D-04 -0.55498966D-04  0.48639497D-04  0.38018115D-04
  0.44595676D-04  0.80219672D-04  0.11694203D-03  0.11452779D-03  0.45041381D-04
 -0.32630300D-03 -0.25629225D-02 -0.97102637D-05 -0.76989618D-05 -0.36834332D-05
 -0.19670028D-03 -0.15595745D-03 -0.74615104D-04 -0.12638263D-03 -0.10020480D-03
 -0.47941229D-04  0.28645495D-03  0.93148933D-03 -0.86314810D-03  0.10020152D-04
  0.21788726D-04 -0.31808878D-04 -0.18294049D-03  0.18391928D-03  0.10628452D-02
  0.83752850D-04  0.15065645D-03  0.21962282D-03  0.21508876D-03  0.84589906D-04
 -0.12533764D-02  0.44108565D-03  0.44578456D-04  0.35344852D-04  0.16910124D-04
 -0.10930970D-03 -0.86668214D-04 -0.41464886D-04 -0.35989855D-03 -0.28535221D-03
 -0.13652176D-03 -0.69755706D-04 -0.26098227D-02 -0.19621051D-02 -0.24381055D-03
  0.83584760D-03 -0.59203705D-03  0.20640256D-03  0.22977612D-03  0.73397467D-03
 -0.53815633D-04 -0.96804732D-04 -0.14111927D-03 -0.13820590D-03 -0.54353486D-04
  0.34068437D-03 -0.66808043D-03  0.54915608D-04  0.43540853D-04  0.20831357D-04
  0.29814983D-04  0.23639359D-04  0.11309837D-04 -0.30420702D-03 -0.24119615D-03
 -0.11539607D-03  0.11423523D-04  0.19106630D-02  0.16757050D-02  0.75587439D-04
  0.82522696D-04 -0.15811014D-03  0.18106060D-04  0.62805340D-04 -0.10738101D-03
 -0.12465844D+01 -0.22477997D+01 -0.33081516D+01 -0.32904009D+01 -0.13046821D+01
 -0.28551801D-01  0.12451826D-01  0.15147418D-02  0.12009146D-02  0.52303556D-03
  0.65220504D-02  0.51707993D-02  0.22520435D-02 -0.30994542D-02 -0.24573032D-02
 -0.10702318D-02 -0.50270583D-03 -0.21496507D-02  0.10445511D-02 -0.44257331D-03
  0.15233147D-03  0.29024184D-03  0.16023101D-03 -0.23412999D-03  0.15830144D-03
 -0.25092312D-04 -0.45136597D-04 -0.65798888D-04 -0.64440486D-04 -0.25343094D-04
 -0.29412134D-03  0.16466958D-03 -0.22676655D-03 -0.17979604D-03 -0.86020262D-04
 -0.29552177D-03 -0.23430989D-03 -0.11210145D-03  0.10818303D-02  0.85774915D-03
  0.41037503D-03 -0.53012044D-03 -0.10697885D-02  0.21683561D-02 -0.72700537D-04
 -0.24593338D-03  0.31863392D-03  0.15107717D-03 -0.31688260D-03 -0.11018932D-02
 -0.17157035D-03 -0.30904384D-03 -0.45293206D-03 -0.44739427D-03 -0.17660463D-03
  0.12095335D-02 -0.41671348D-02  0.21270520D-03  0.17003570D-03  0.78993552D-04
  0.81668604D-03  0.65285562D-03  0.30329739D-03 -0.49593969D-03 -0.39645224D-03
 -0.18417997D-03 -0.16826093D-03 -0.60903374D-03  0.44229404D-03  0.34004737D-03
 -0.38263706D-03  0.42589689D-04 -0.41767192D-04 -0.59854727D-04 -0.10428555D-02
 -0.31216808D-04 -0.56153473D-04 -0.81858987D-04 -0.80169028D-04 -0.31528800D-04
 -0.46771989D-06  0.16131872D-02 -0.77692962D-04 -0.61600298D-04 -0.29471582D-04
 -0.68785942D-03 -0.54538203D-03 -0.26092847D-03 -0.15362378D-03 -0.12180345D-03
 -0.58274722D-04  0.45061708D-03  0.20688400D-02 -0.86455892D-03 -0.13093274D-03
 -0.87795754D-04  0.21872849D-03 -0.54055314D-04 -0.65355061D-04  0.36221376D-03
  0.30947546D-04  0.55669119D-04  0.81152909D-04  0.79477527D-04  0.31256847D-04
 -0.21292553D-03 -0.23795159D-02  0.16922015D-05  0.13416932D-05  0.64190958D-06
  0.12299417D-03  0.97518197D-04  0.46655871D-04  0.92807377D-04  0.73584041D-04
  0.35204994D-04  0.27932422D-03  0.12334074D-02 -0.61245400D-03 -0.20170354D-04
 -0.60864914D-04  0.81035268D-04 -0.46647647D-04 -0.19660356D-05  0.20180227D-03
  0.60181840D-05  0.10825640D-04  0.15781320D-04  0.15455519D-04  0.60783319D-05
 -0.89717787D-04  0.83900602D-03  0.19139059D-04  0.15174756D-04  0.72600958D-05
 -0.26840622D-04 -0.21281082D-04 -0.10181561D-04 -0.14893911D-03 -0.11808912D-03
 -0.56497670D-04 -0.14396968D-03 -0.10458768D-03  0.75140642D-03 -0.16143609D-04
  0.50334378D-04 -0.34190770D-04  0.25225199D-04  0.21968993D-05 -0.48462596D-04
  0.47078531D-05  0.84685885D-05  0.12345275D-04  0.12090410D-04  0.47549050D-05
 -0.20012135D-04 -0.34285673D-03 -0.51844899D-05 -0.41106184D-05 -0.19666533D-05
 -0.13257092D-04 -0.10511130D-04 -0.50288657D-05  0.18567437D-04  0.14721535D-04
  0.70432602D-05  0.21098073D-04  0.18860047D-03  0.59773236D-05  0.11247603D-04
 -0.10927003D-04 -0.32060003D-06 -0.10181908D-04  0.77861043D-05  0.24061435D-04
  0.31025120D-05  0.55808660D-05  0.81356328D-05  0.79676747D-05  0.31335196D-05
 -0.32210402D-04  0.32137018D-03 -0.26072068D-05 -0.20671720D-05 -0.98900219D-06
 -0.29076006D-04 -0.23053448D-04 -0.11029518D-04  0.75609515D-06  0.59948399D-06
  0.28681260D-06  0.47314545D-04  0.18689089D-03 -0.15456998D-03 -0.18151319D-05
 -0.12156186D-04  0.13971318D-04 -0.39935491D-05 -0.28470324D-05  0.14288269D-04
  0.12402336D-04  0.22309591D-04  0.32522308D-04  0.31850892D-04  0.12526289D-04
 -0.48210621D-04 -0.86413573D-03 -0.70342790D-05 -0.55772579D-05 -0.26683412D-05
  0.17979541D-04  0.14255410D-04  0.68202511D-05  0.25550758D-04  0.20258390D-04
  0.96922714D-05 -0.97408715D-04 -0.14056648D-03  0.48468232D-03  0.33224308D-04
  0.23492465D-04 -0.56716773D-04 -0.56453294D-05  0.32970563D-04  0.16689048D-04
 -0.13266461D-04 -0.23863999D-04 -0.34788281D-04 -0.34070085D-04 -0.13399051D-04
  0.10305039D-03  0.11995264D-03 -0.14902180D-04 -0.11815468D-04 -0.56529034D-05
 -0.10291561D-03 -0.81598537D-04 -0.39039388D-04  0.26168674D-04  0.20748316D-04
  0.99266679D-05  0.42074233D-04 -0.92589246D-04 -0.30264928D-03  0.13834407D-04
 -0.63706226D-05 -0.74637843D-05 -0.25392939D-04  0.20505298D-04  0.10397333D-03
 -0.25719433D-05 -0.46264676D-05 -0.67443370D-05 -0.66051018D-05 -0.25976482D-05
  0.27730226D-04  0.79333738D-04  0.60384113D-05  0.47876658D-05  0.22905747D-05
 -0.19245456D-04 -0.15259115D-04 -0.73004559D-05 -0.49109179D-04 -0.38937119D-04
 -0.18628782D-04 -0.33580162D-04 -0.19876884D-03  0.61799552D-04  0.18939878D-04
 -0.75737231D-05 -0.11366155D-04 -0.14452612D-06  0.60775824D-05 -0.37227210D-04
 -0.30282365D-05 -0.54472577D-05 -0.79408623D-05 -0.77769251D-05 -0.30585018D-05
  0.25353996D-04 -0.89899499D-05 -0.15806706D-06 -0.12532638D-06 -0.59960209D-07
 -0.29933592D-05 -0.23733401D-05 -0.11354829D-05 -0.11428644D-05 -0.90614110D-06
 -0.43352731D-06 -0.30197434D-04 -0.13165326D-03  0.87572567D-04  0.75041748D-05
  0.80130460D-05 -0.15517221D-04 -0.19752475D-05  0.95142385D-05  0.10127331D-04
 -0.11108426D-05 -0.19982078D-05 -0.29129323D-05 -0.28527955D-05 -0.11219447D-05
  0.57846258D-05  0.43502535D-04 -0.32593910D-05 -0.25842683D-05 -0.12363978D-05
 -0.16775350D-04 -0.13300646D-04 -0.63634606D-05  0.87425447D-05  0.69316879D-05
  0.33163445D-05  0.14475761D-04  0.20118069D-04 -0.70195039D-04  0.17936084D-05